+ 0.202034 /NodeList/2/DeviceList/1/$ns3::PointToPointNetDevice/TxQueue/Enqueue ns3::PppHeader (Point-to-Point Protocol: IP (0x0021)) ns3::Ipv4Header (tos 0x0 DSCP Default ECN Not-ECT ttl 64 id 0 protocol 17 offset (bytes) 0 flags [none] length: 68 10.1.1.2 > 10.1.1.255) ns3::UdpHeader (length: 48 698 > 698) ns3::olsr::PacketHeader () ns3::olsr::MessageHeader () ns3::olsr::MessageHeader ()
- 0.202034 /NodeList/2/DeviceList/1/$ns3::PointToPointNetDevice/TxQueue/Dequeue ns3::PppHeader (Point-to-Point Protocol: IP (0x0021)) ns3::Ipv4Header (tos 0x0 DSCP Default ECN Not-ECT ttl 64 id 0 protocol 17 offset (bytes) 0 flags [none] length: 68 10.1.1.2 > 10.1.1.255) ns3::UdpHeader (length: 48 698 > 698) ns3::olsr::PacketHeader () ns3::olsr::MessageHeader () ns3::olsr::MessageHeader ()
+ 0.202034 /NodeList/2/DeviceList/2/$ns3::PointToPointNetDevice/TxQueue/Enqueue ns3::PppHeader (Point-to-Point Protocol: IP (0x0021)) ns3::Ipv4Header (tos 0x0 DSCP Default ECN Not-ECT ttl 64 id 0 protocol 17 offset (bytes) 0 flags [none] length: 68 10.1.2.2 > 10.1.2.255) ns3::UdpHeader (length: 48 698 > 698) ns3::olsr::PacketHeader () ns3::olsr::MessageHeader () ns3::olsr::MessageHeader ()
- 0.202034 /NodeList/2/DeviceList/2/$ns3::PointToPointNetDevice/TxQueue/Dequeue ns3::PppHeader (Point-to-Point Protocol: IP (0x0021)) ns3::Ipv4Header (tos 0x0 DSCP Default ECN Not-ECT ttl 64 id 0 protocol 17 offset (bytes) 0 flags [none] length: 68 10.1.2.2 > 10.1.2.255) ns3::UdpHeader (length: 48 698 > 698) ns3::olsr::PacketHeader () ns3::olsr::MessageHeader () ns3::olsr::MessageHeader ()
+ 0.202034 /NodeList/2/DeviceList/3/$ns3::PointToPointNetDevice/TxQueue/Enqueue ns3::PppHeader (Point-to-Point Protocol: IP (0x0021)) ns3::Ipv4Header (tos 0x0 DSCP Default ECN Not-ECT ttl 64 id 0 protocol 17 offset (bytes) 0 flags [none] length: 68 10.1.3.2 > 10.1.3.255) ns3::UdpHeader (length: 48 698 > 698) ns3::olsr::PacketHeader () ns3::olsr::MessageHeader () ns3::olsr::MessageHeader ()
- 0.202034 /NodeList/2/DeviceList/3/$ns3::PointToPointNetDevice/TxQueue/Dequeue ns3::PppHeader (Point-to-Point Protocol: IP (0x0021)) ns3::Ipv4Header (tos 0x0 DSCP Default ECN Not-ECT ttl 64 id 0 protocol 17 offset (bytes) 0 flags [none] length: 68 10.1.3.2 > 10.1.3.255) ns3::UdpHeader (length: 48 698 > 698) ns3::olsr::PacketHeader () ns3::olsr::MessageHeader () ns3::olsr::MessageHeader ()
r 0.204146 /NodeList/0/DeviceList/1/$ns3::PointToPointNetDevice/MacRx ns3::PppHeader (Point-to-Point Protocol: IP (0x0021)) ns3::Ipv4Header (tos 0x0 DSCP Default ECN Not-ECT ttl 64 id 0 protocol 17 offset (bytes) 0 flags [none] length: 68 10.1.1.2 > 10.1.1.255) ns3::UdpHeader (length: 48 698 > 698) ns3::olsr::PacketHeader () ns3::olsr::MessageHeader () ns3::olsr::MessageHeader ()
r 0.204146 /NodeList/1/DeviceList/1/$ns3::PointToPointNetDevice/MacRx ns3::PppHeader (Point-to-Point Protocol: IP (0x0021)) ns3::Ipv4Header (tos 0x0 DSCP Default ECN Not-ECT ttl 64 id 0 protocol 17 offset (bytes) 0 flags [none] length: 68 10.1.2.2 > 10.1.2.255) ns3::UdpHeader (length: 48 698 > 698) ns3::olsr::PacketHeader () ns3::olsr::MessageHeader () ns3::olsr::MessageHeader ()
r 0.212408 /NodeList/3/DeviceList/1/$ns3::PointToPointNetDevice/MacRx ns3::PppHeader (Point-to-Point Protocol: IP (0x0021)) ns3::Ipv4Header (tos 0x0 DSCP Default ECN Not-ECT ttl 64 id 0 protocol 17 offset (bytes) 0 flags [none] length: 68 10.1.3.2 > 10.1.3.255) ns3::UdpHeader (length: 48 698 > 698) ns3::olsr::PacketHeader () ns3::olsr::MessageHeader () ns3::olsr::MessageHeader ()
+ 0.257317 /NodeList/3/DeviceList/1/$ns3::PointToPointNetDevice/TxQueue/Enqueue ns3::PppHeader (Point-to-Point Protocol: IP (0x0021)) ns3::Ipv4Header (tos 0x0 DSCP Default ECN Not-ECT ttl 64 id 0 protocol 17 offset (bytes) 0 flags [none] length: 48 10.1.3.1 > 10.1.3.255) ns3::UdpHeader (length: 28 698 > 698) ns3::olsr::PacketHeader () ns3::olsr::MessageHeader ()
- 0.257317 /NodeList/3/DeviceList/1/$ns3::PointToPointNetDevice/TxQueue/Dequeue ns3::PppHeader (Point-to-Point Protocol: IP (0x0021)) ns3::Ipv4Header (tos 0x0 DSCP Default ECN Not-ECT ttl 64 id 0 protocol 17 offset (bytes) 0 flags [none] length: 48 10.1.3.1 > 10.1.3.255) ns3::UdpHeader (length: 28 698 > 698) ns3::olsr::PacketHeader () ns3::olsr::MessageHeader ()
r 0.267583 /NodeList/2/DeviceList/3/$ns3::PointToPointNetDevice/MacRx ns3::PppHeader (Point-to-Point Protocol: IP (0x0021)) ns3::Ipv4Header (tos 0x0 DSCP Default ECN Not-ECT ttl 64 id 0 protocol 17 offset (bytes) 0 flags [none] length: 48 10.1.3.1 > 10.1.3.255) ns3::UdpHeader (length: 28 698 > 698) ns3::olsr::PacketHeader () ns3::olsr::MessageHeader ()
+ 0.296644 /NodeList/1/DeviceList/1/$ns3::PointToPointNetDevice/TxQueue/Enqueue ns3::PppHeader (Point-to-Point Protocol: IP (0x0021)) ns3::Ipv4Header (tos 0x0 DSCP Default ECN Not-ECT ttl 64 id 0 protocol 17 offset (bytes) 0 flags [none] length: 48 10.1.2.1 > 10.1.2.255) ns3::UdpHeader (length: 28 698 > 698) ns3::olsr::PacketHeader () ns3::olsr::MessageHeader ()
- 0.296644 /NodeList/1/DeviceList/1/$ns3::PointToPointNetDevice/TxQueue/Dequeue ns3::PppHeader (Point-to-Point Protocol: IP (0x0021)) ns3::Ipv4Header (tos 0x0 DSCP Default ECN Not-ECT ttl 64 id 0 protocol 17 offset (bytes) 0 flags [none] length: 48 10.1.2.1 > 10.1.2.255) ns3::UdpHeader (length: 28 698 > 698) ns3::olsr::PacketHeader () ns3::olsr::MessageHeader ()
r 0.298724 /NodeList/2/DeviceList/2/$ns3::PointToPointNetDevice/MacRx ns3::PppHeader (Point-to-Point Protocol: IP (0x0021)) ns3::Ipv4Header (tos 0x0 DSCP Default ECN Not-ECT ttl 64 id 0 protocol 17 offset (bytes) 0 flags [none] length: 48 10.1.2.1 > 10.1.2.255) ns3::UdpHeader (length: 28 698 > 698) ns3::olsr::PacketHeader () ns3::olsr::MessageHeader ()
+ 0.417575 /NodeList/0/DeviceList/1/$ns3::PointToPointNetDevice/TxQueue/Enqueue ns3::PppHeader (Point-to-Point Protocol: IP (0x0021)) ns3::Ipv4Header (tos 0x0 DSCP Default ECN Not-ECT ttl 64 id 0 protocol 17 offset (bytes) 0 flags [none] length: 48 10.1.1.1 > 10.1.1.255) ns3::UdpHeader (length: 28 698 > 698) ns3::olsr::PacketHeader () ns3::olsr::MessageHeader ()
- 0.417575 /NodeList/0/DeviceList/1/$ns3::PointToPointNetDevice/TxQueue/Dequeue ns3::PppHeader (Point-to-Point Protocol: IP (0x0021)) ns3::Ipv4Header (tos 0x0 DSCP Default ECN Not-ECT ttl 64 id 0 protocol 17 offset (bytes) 0 flags [none] length: 48 10.1.1.1 > 10.1.1.255) ns3::UdpHeader (length: 28 698 > 698) ns3::olsr::PacketHeader () ns3::olsr::MessageHeader ()
r 0.419655 /NodeList/2/DeviceList/1/$ns3::PointToPointNetDevice/MacRx ns3::PppHeader (Point-to-Point Protocol: IP (0x0021)) ns3::Ipv4Header (tos 0x0 DSCP Default ECN Not-ECT ttl 64 id 0 protocol 17 offset (bytes) 0 flags [none] length: 48 10.1.1.1 > 10.1.1.255) ns3::UdpHeader (length: 28 698 > 698) ns3::olsr::PacketHeader () ns3::olsr::MessageHeader ()
+ 2.12656 /NodeList/1/DeviceList/1/$ns3::PointToPointNetDevice/TxQueue/Enqueue ns3::PppHeader (Point-to-Point Protocol: IP (0x0021)) ns3::Ipv4Header (tos 0x0 DSCP Default ECN Not-ECT ttl 64 id 1 protocol 17 offset (bytes) 0 flags [none] length: 56 10.1.2.1 > 10.1.2.255) ns3::UdpHeader (length: 36 698 > 698) ns3::olsr::PacketHeader () ns3::olsr::MessageHeader ()
- 2.12656 /NodeList/1/DeviceList/1/$ns3::PointToPointNetDevice/TxQueue/Dequeue ns3::PppHeader (Point-to-Point Protocol: IP (0x0021)) ns3::Ipv4Header (tos 0x0 DSCP Default ECN Not-ECT ttl 64 id 1 protocol 17 offset (bytes) 0 flags [none] length: 56 10.1.2.1 > 10.1.2.255) ns3::UdpHeader (length: 36 698 > 698) ns3::olsr::PacketHeader () ns3::olsr::MessageHeader ()
r 2.12865 /NodeList/2/DeviceList/2/$ns3::PointToPointNetDevice/MacRx ns3::PppHeader (Point-to-Point Protocol: IP (0x0021)) ns3::Ipv4Header (tos 0x0 DSCP Default ECN Not-ECT ttl 64 id 1 protocol 17 offset (bytes) 0 flags [none] length: 56 10.1.2.1 > 10.1.2.255) ns3::UdpHeader (length: 36 698 > 698) ns3::olsr::PacketHeader () ns3::olsr::MessageHeader ()
+ 2.24887 /NodeList/3/DeviceList/1/$ns3::PointToPointNetDevice/TxQueue/Enqueue ns3::PppHeader (Point-to-Point Protocol: IP (0x0021)) ns3::Ipv4Header (tos 0x0 DSCP Default ECN Not-ECT ttl 64 id 1 protocol 17 offset (bytes) 0 flags [none] length: 56 10.1.3.1 > 10.1.3.255) ns3::UdpHeader (length: 36 698 > 698) ns3::olsr::PacketHeader () ns3::olsr::MessageHeader ()
- 2.24887 /NodeList/3/DeviceList/1/$ns3::PointToPointNetDevice/TxQueue/Dequeue ns3::PppHeader (Point-to-Point Protocol: IP (0x0021)) ns3::Ipv4Header (tos 0x0 DSCP Default ECN Not-ECT ttl 64 id 1 protocol 17 offset (bytes) 0 flags [none] length: 56 10.1.3.1 > 10.1.3.255) ns3::UdpHeader (length: 36 698 > 698) ns3::olsr::PacketHeader () ns3::olsr::MessageHeader ()
r 2.25918 /NodeList/2/DeviceList/3/$ns3::PointToPointNetDevice/MacRx ns3::PppHeader (Point-to-Point Protocol: IP (0x0021)) ns3::Ipv4Header (tos 0x0 DSCP Default ECN Not-ECT ttl 64 id 1 protocol 17 offset (bytes) 0 flags [none] length: 56 10.1.3.1 > 10.1.3.255) ns3::UdpHeader (length: 36 698 > 698) ns3::olsr::PacketHeader () ns3::olsr::MessageHeader ()
+ 2.26308 /NodeList/0/DeviceList/1/$ns3::PointToPointNetDevice/TxQueue/Enqueue ns3::PppHeader (Point-to-Point Protocol: IP (0x0021)) ns3::Ipv4Header (tos 0x0 DSCP Default ECN Not-ECT ttl 64 id 1 protocol 17 offset (bytes) 0 flags [none] length: 56 10.1.1.1 > 10.1.1.255) ns3::UdpHeader (length: 36 698 > 698) ns3::olsr::PacketHeader () ns3::olsr::MessageHeader ()
- 2.26308 /NodeList/0/DeviceList/1/$ns3::PointToPointNetDevice/TxQueue/Dequeue ns3::PppHeader (Point-to-Point Protocol: IP (0x0021)) ns3::Ipv4Header (tos 0x0 DSCP Default ECN Not-ECT ttl 64 id 1 protocol 17 offset (bytes) 0 flags [none] length: 56 10.1.1.1 > 10.1.1.255) ns3::UdpHeader (length: 36 698 > 698) ns3::olsr::PacketHeader () ns3::olsr::MessageHeader ()
r 2.26518 /NodeList/2/DeviceList/1/$ns3::PointToPointNetDevice/MacRx ns3::PppHeader (Point-to-Point Protocol: IP (0x0021)) ns3::Ipv4Header (tos 0x0 DSCP Default ECN Not-ECT ttl 64 id 1 protocol 17 offset (bytes) 0 flags [none] length: 56 10.1.1.1 > 10.1.1.255) ns3::UdpHeader (length: 36 698 > 698) ns3::olsr::PacketHeader () ns3::olsr::MessageHeader ()
+ 2.43071 /NodeList/2/DeviceList/1/$ns3::PointToPointNetDevice/TxQueue/Enqueue ns3::PppHeader (Point-to-Point Protocol: IP (0x0021)) ns3::Ipv4Header (tos 0x0 DSCP Default ECN Not-ECT ttl 64 id 1 protocol 17 offset (bytes) 0 flags [none] length: 72 10.1.1.2 > 10.1.1.255) ns3::UdpHeader (length: 52 698 > 698) ns3::olsr::PacketHeader () ns3::olsr::MessageHeader ()
- 2.43071 /NodeList/2/DeviceList/1/$ns3::PointToPointNetDevice/TxQueue/Dequeue ns3::PppHeader (Point-to-Point Protocol: IP (0x0021)) ns3::Ipv4Header (tos 0x0 DSCP Default ECN Not-ECT ttl 64 id 1 protocol 17 offset (bytes) 0 flags [none] length: 72 10.1.1.2 > 10.1.1.255) ns3::UdpHeader (length: 52 698 > 698) ns3::olsr::PacketHeader () ns3::olsr::MessageHeader ()
+ 2.43071 /NodeList/2/DeviceList/2/$ns3::PointToPointNetDevice/TxQueue/Enqueue ns3::PppHeader (Point-to-Point Protocol: IP (0x0021)) ns3::Ipv4Header (tos 0x0 DSCP Default ECN Not-ECT ttl 64 id 1 protocol 17 offset (bytes) 0 flags [none] length: 72 10.1.2.2 > 10.1.2.255) ns3::UdpHeader (length: 52 698 > 698) ns3::olsr::PacketHeader () ns3::olsr::MessageHeader ()
- 2.43071 /NodeList/2/DeviceList/2/$ns3::PointToPointNetDevice/TxQueue/Dequeue ns3::PppHeader (Point-to-Point Protocol: IP (0x0021)) ns3::Ipv4Header (tos 0x0 DSCP Default ECN Not-ECT ttl 64 id 1 protocol 17 offset (bytes) 0 flags [none] length: 72 10.1.2.2 > 10.1.2.255) ns3::UdpHeader (length: 52 698 > 698) ns3::olsr::PacketHeader () ns3::olsr::MessageHeader ()
+ 2.43071 /NodeList/2/DeviceList/3/$ns3::PointToPointNetDevice/TxQueue/Enqueue ns3::PppHeader (Point-to-Point Protocol: IP (0x0021)) ns3::Ipv4Header (tos 0x0 DSCP Default ECN Not-ECT ttl 64 id 1 protocol 17 offset (bytes) 0 flags [none] length: 72 10.1.3.2 > 10.1.3.255) ns3::UdpHeader (length: 52 698 > 698) ns3::olsr::PacketHeader () ns3::olsr::MessageHeader ()
- 2.43071 /NodeList/2/DeviceList/3/$ns3::PointToPointNetDevice/TxQueue/Dequeue ns3::PppHeader (Point-to-Point Protocol: IP (0x0021)) ns3::Ipv4Header (tos 0x0 DSCP Default ECN Not-ECT ttl 64 id 1 protocol 17 offset (bytes) 0 flags [none] length: 72 10.1.3.2 > 10.1.3.255) ns3::UdpHeader (length: 52 698 > 698) ns3::olsr::PacketHeader () ns3::olsr::MessageHeader ()
r 2.43283 /NodeList/0/DeviceList/1/$ns3::PointToPointNetDevice/MacRx ns3::PppHeader (Point-to-Point Protocol: IP (0x0021)) ns3::Ipv4Header (tos 0x0 DSCP Default ECN Not-ECT ttl 64 id 1 protocol 17 offset (bytes) 0 flags [none] length: 72 10.1.1.2 > 10.1.1.255) ns3::UdpHeader (length: 52 698 > 698) ns3::olsr::PacketHeader () ns3::olsr::MessageHeader ()
r 2.43283 /NodeList/1/DeviceList/1/$ns3::PointToPointNetDevice/MacRx ns3::PppHeader (Point-to-Point Protocol: IP (0x0021)) ns3::Ipv4Header (tos 0x0 DSCP Default ECN Not-ECT ttl 64 id 1 protocol 17 offset (bytes) 0 flags [none] length: 72 10.1.2.2 > 10.1.2.255) ns3::UdpHeader (length: 52 698 > 698) ns3::olsr::PacketHeader () ns3::olsr::MessageHeader ()
r 2.44111 /NodeList/3/DeviceList/1/$ns3::PointToPointNetDevice/MacRx ns3::PppHeader (Point-to-Point Protocol: IP (0x0021)) ns3::Ipv4Header (tos 0x0 DSCP Default ECN Not-ECT ttl 64 id 1 protocol 17 offset (bytes) 0 flags [none] length: 72 10.1.3.2 > 10.1.3.255) ns3::UdpHeader (length: 52 698 > 698) ns3::olsr::PacketHeader () ns3::olsr::MessageHeader ()
+ 4.08789 /NodeList/2/DeviceList/1/$ns3::PointToPointNetDevice/TxQueue/Enqueue ns3::PppHeader (Point-to-Point Protocol: IP (0x0021)) ns3::Ipv4Header (tos 0x0 DSCP Default ECN Not-ECT ttl 64 id 2 protocol 17 offset (bytes) 0 flags [none] length: 72 10.1.1.2 > 10.1.1.255) ns3::UdpHeader (length: 52 698 > 698) ns3::olsr::PacketHeader () ns3::olsr::MessageHeader ()
- 4.08789 /NodeList/2/DeviceList/1/$ns3::PointToPointNetDevice/TxQueue/Dequeue ns3::PppHeader (Point-to-Point Protocol: IP (0x0021)) ns3::Ipv4Header (tos 0x0 DSCP Default ECN Not-ECT ttl 64 id 2 protocol 17 offset (bytes) 0 flags [none] length: 72 10.1.1.2 > 10.1.1.255) ns3::UdpHeader (length: 52 698 > 698) ns3::olsr::PacketHeader () ns3::olsr::MessageHeader ()
+ 4.08789 /NodeList/2/DeviceList/2/$ns3::PointToPointNetDevice/TxQueue/Enqueue ns3::PppHeader (Point-to-Point Protocol: IP (0x0021)) ns3::Ipv4Header (tos 0x0 DSCP Default ECN Not-ECT ttl 64 id 2 protocol 17 offset (bytes) 0 flags [none] length: 72 10.1.2.2 > 10.1.2.255) ns3::UdpHeader (length: 52 698 > 698) ns3::olsr::PacketHeader () ns3::olsr::MessageHeader ()
- 4.08789 /NodeList/2/DeviceList/2/$ns3::PointToPointNetDevice/TxQueue/Dequeue ns3::PppHeader (Point-to-Point Protocol: IP (0x0021)) ns3::Ipv4Header (tos 0x0 DSCP Default ECN Not-ECT ttl 64 id 2 protocol 17 offset (bytes) 0 flags [none] length: 72 10.1.2.2 > 10.1.2.255) ns3::UdpHeader (length: 52 698 > 698) ns3::olsr::PacketHeader () ns3::olsr::MessageHeader ()
+ 4.08789 /NodeList/2/DeviceList/3/$ns3::PointToPointNetDevice/TxQueue/Enqueue ns3::PppHeader (Point-to-Point Protocol: IP (0x0021)) ns3::Ipv4Header (tos 0x0 DSCP Default ECN Not-ECT ttl 64 id 2 protocol 17 offset (bytes) 0 flags [none] length: 72 10.1.3.2 > 10.1.3.255) ns3::UdpHeader (length: 52 698 > 698) ns3::olsr::PacketHeader () ns3::olsr::MessageHeader ()
- 4.08789 /NodeList/2/DeviceList/3/$ns3::PointToPointNetDevice/TxQueue/Dequeue ns3::PppHeader (Point-to-Point Protocol: IP (0x0021)) ns3::Ipv4Header (tos 0x0 DSCP Default ECN Not-ECT ttl 64 id 2 protocol 17 offset (bytes) 0 flags [none] length: 72 10.1.3.2 > 10.1.3.255) ns3::UdpHeader (length: 52 698 > 698) ns3::olsr::PacketHeader () ns3::olsr::MessageHeader ()
r 4.09 /NodeList/0/DeviceList/1/$ns3::PointToPointNetDevice/MacRx ns3::PppHeader (Point-to-Point Protocol: IP (0x0021)) ns3::Ipv4Header (tos 0x0 DSCP Default ECN Not-ECT ttl 64 id 2 protocol 17 offset (bytes) 0 flags [none] length: 72 10.1.1.2 > 10.1.1.255) ns3::UdpHeader (length: 52 698 > 698) ns3::olsr::PacketHeader () ns3::olsr::MessageHeader ()
r 4.09 /NodeList/1/DeviceList/1/$ns3::PointToPointNetDevice/MacRx ns3::PppHeader (Point-to-Point Protocol: IP (0x0021)) ns3::Ipv4Header (tos 0x0 DSCP Default ECN Not-ECT ttl 64 id 2 protocol 17 offset (bytes) 0 flags [none] length: 72 10.1.2.2 > 10.1.2.255) ns3::UdpHeader (length: 52 698 > 698) ns3::olsr::PacketHeader () ns3::olsr::MessageHeader ()
+ 4.09029 /NodeList/0/DeviceList/1/$ns3::PointToPointNetDevice/TxQueue/Enqueue ns3::PppHeader (Point-to-Point Protocol: IP (0x0021)) ns3::Ipv4Header (tos 0x0 DSCP Default ECN Not-ECT ttl 64 id 0 protocol 17 offset (bytes) 0 flags [none] length: 540 10.1.1.1 > 10.1.3.1) ns3::UdpHeader (length: 520 49153 > 9) Payload (size=512)
- 4.09029 /NodeList/0/DeviceList/1/$ns3::PointToPointNetDevice/TxQueue/Dequeue ns3::PppHeader (Point-to-Point Protocol: IP (0x0021)) ns3::Ipv4Header (tos 0x0 DSCP Default ECN Not-ECT ttl 64 id 0 protocol 17 offset (bytes) 0 flags [none] length: 540 10.1.1.1 > 10.1.3.1) ns3::UdpHeader (length: 520 49153 > 9) Payload (size=512)
r 4.09315 /NodeList/2/DeviceList/1/$ns3::PointToPointNetDevice/MacRx ns3::PppHeader (Point-to-Point Protocol: IP (0x0021)) ns3::Ipv4Header (tos 0x0 DSCP Default ECN Not-ECT ttl 64 id 0 protocol 17 offset (bytes) 0 flags [none] length: 540 10.1.1.1 > 10.1.3.1) ns3::UdpHeader (length: 520 49153 > 9) Payload (size=512)
+ 4.09315 /NodeList/2/DeviceList/3/$ns3::PointToPointNetDevice/TxQueue/Enqueue ns3::PppHeader (Point-to-Point Protocol: IP (0x0021)) ns3::Ipv4Header (tos 0x0 DSCP Default ECN Not-ECT ttl 63 id 0 protocol 17 offset (bytes) 0 flags [none] length: 540 10.1.1.1 > 10.1.3.1) ns3::UdpHeader (length: 520 49153 > 9) Payload (size=512)
- 4.09315 /NodeList/2/DeviceList/3/$ns3::PointToPointNetDevice/TxQueue/Dequeue ns3::PppHeader (Point-to-Point Protocol: IP (0x0021)) ns3::Ipv4Header (tos 0x0 DSCP Default ECN Not-ECT ttl 63 id 0 protocol 17 offset (bytes) 0 flags [none] length: 540 10.1.1.1 > 10.1.3.1) ns3::UdpHeader (length: 520 49153 > 9) Payload (size=512)
r 4.09828 /NodeList/3/DeviceList/1/$ns3::PointToPointNetDevice/MacRx ns3::PppHeader (Point-to-Point Protocol: IP (0x0021)) ns3::Ipv4Header (tos 0x0 DSCP Default ECN Not-ECT ttl 64 id 2 protocol 17 offset (bytes) 0 flags [none] length: 72 10.1.3.2 > 10.1.3.255) ns3::UdpHeader (length: 52 698 > 698) ns3::olsr::PacketHeader () ns3::olsr::MessageHeader ()
+ 4.09943 /NodeList/0/DeviceList/1/$ns3::PointToPointNetDevice/TxQueue/Enqueue ns3::PppHeader (Point-to-Point Protocol: IP (0x0021)) ns3::Ipv4Header (tos 0x0 DSCP Default ECN Not-ECT ttl 64 id 1 protocol 17 offset (bytes) 0 flags [none] length: 540 10.1.1.1 > 10.1.3.1) ns3::UdpHeader (length: 520 49153 > 9) Payload (size=512)
- 4.09943 /NodeList/0/DeviceList/1/$ns3::PointToPointNetDevice/TxQueue/Dequeue ns3::PppHeader (Point-to-Point Protocol: IP (0x0021)) ns3::Ipv4Header (tos 0x0 DSCP Default ECN Not-ECT ttl 64 id 1 protocol 17 offset (bytes) 0 flags [none] length: 540 10.1.1.1 > 10.1.3.1) ns3::UdpHeader (length: 520 49153 > 9) Payload (size=512)
r 4.1023 /NodeList/2/DeviceList/1/$ns3::PointToPointNetDevice/MacRx ns3::PppHeader (Point-to-Point Protocol: IP (0x0021)) ns3::Ipv4Header (tos 0x0 DSCP Default ECN Not-ECT ttl 64 id 1 protocol 17 offset (bytes) 0 flags [none] length: 540 10.1.1.1 > 10.1.3.1) ns3::UdpHeader (length: 520 49153 > 9) Payload (size=512)
+ 4.1023 /NodeList/2/DeviceList/3/$ns3::PointToPointNetDevice/TxQueue/Enqueue ns3::PppHeader (Point-to-Point Protocol: IP (0x0021)) ns3::Ipv4Header (tos 0x0 DSCP Default ECN Not-ECT ttl 63 id 1 protocol 17 offset (bytes) 0 flags [none] length: 540 10.1.1.1 > 10.1.3.1) ns3::UdpHeader (length: 520 49153 > 9) Payload (size=512)
- 4.1023 /NodeList/2/DeviceList/3/$ns3::PointToPointNetDevice/TxQueue/Dequeue ns3::PppHeader (Point-to-Point Protocol: IP (0x0021)) ns3::Ipv4Header (tos 0x0 DSCP Default ECN Not-ECT ttl 63 id 1 protocol 17 offset (bytes) 0 flags [none] length: 540 10.1.1.1 > 10.1.3.1) ns3::UdpHeader (length: 520 49153 > 9) Payload (size=512)
+ 4.1055 /NodeList/1/DeviceList/1/$ns3::PointToPointNetDevice/TxQueue/Enqueue ns3::PppHeader (Point-to-Point Protocol: IP (0x0021)) ns3::Ipv4Header (tos 0x0 DSCP Default ECN Not-ECT ttl 64 id 2 protocol 17 offset (bytes) 0 flags [none] length: 56 10.1.2.1 > 10.1.2.255) ns3::UdpHeader (length: 36 698 > 698) ns3::olsr::PacketHeader () ns3::olsr::MessageHeader ()
- 4.1055 /NodeList/1/DeviceList/1/$ns3::PointToPointNetDevice/TxQueue/Dequeue ns3::PppHeader (Point-to-Point Protocol: IP (0x0021)) ns3::Ipv4Header (tos 0x0 DSCP Default ECN Not-ECT ttl 64 id 2 protocol 17 offset (bytes) 0 flags [none] length: 56 10.1.2.1 > 10.1.2.255) ns3::UdpHeader (length: 36 698 > 698) ns3::olsr::PacketHeader () ns3::olsr::MessageHeader ()
r 4.10604 /NodeList/3/DeviceList/1/$ns3::PointToPointNetDevice/MacRx ns3::PppHeader (Point-to-Point Protocol: IP (0x0021)) ns3::Ipv4Header (tos 0x0 DSCP Default ECN Not-ECT ttl 63 id 0 protocol 17 offset (bytes) 0 flags [none] length: 540 10.1.1.1 > 10.1.3.1) ns3::UdpHeader (length: 520 49153 > 9) Payload (size=512)
r 4.1076 /NodeList/2/DeviceList/2/$ns3::PointToPointNetDevice/MacRx ns3::PppHeader (Point-to-Point Protocol: IP (0x0021)) ns3::Ipv4Header (tos 0x0 DSCP Default ECN Not-ECT ttl 64 id 2 protocol 17 offset (bytes) 0 flags [none] length: 56 10.1.2.1 > 10.1.2.255) ns3::UdpHeader (length: 36 698 > 698) ns3::olsr::PacketHeader () ns3::olsr::MessageHeader ()
+ 4.10857 /NodeList/0/DeviceList/1/$ns3::PointToPointNetDevice/TxQueue/Enqueue ns3::PppHeader (Point-to-Point Protocol: IP (0x0021)) ns3::Ipv4Header (tos 0x0 DSCP Default ECN Not-ECT ttl 64 id 2 protocol 17 offset (bytes) 0 flags [none] length: 540 10.1.1.1 > 10.1.3.1) ns3::UdpHeader (length: 520 49153 > 9) Payload (size=512)
- 4.10857 /NodeList/0/DeviceList/1/$ns3::PointToPointNetDevice/TxQueue/Dequeue ns3::PppHeader (Point-to-Point Protocol: IP (0x0021)) ns3::Ipv4Header (tos 0x0 DSCP Default ECN Not-ECT ttl 64 id 2 protocol 17 offset (bytes) 0 flags [none] length: 540 10.1.1.1 > 10.1.3.1) ns3::UdpHeader (length: 520 49153 > 9) Payload (size=512)
r 4.11144 /NodeList/2/DeviceList/1/$ns3::PointToPointNetDevice/MacRx ns3::PppHeader (Point-to-Point Protocol: IP (0x0021)) ns3::Ipv4Header (tos 0x0 DSCP Default ECN Not-ECT ttl 64 id 2 protocol 17 offset (bytes) 0 flags [none] length: 540 10.1.1.1 > 10.1.3.1) ns3::UdpHeader (length: 520 49153 > 9) Payload (size=512)
+ 4.11144 /NodeList/2/DeviceList/3/$ns3::PointToPointNetDevice/TxQueue/Enqueue ns3::PppHeader (Point-to-Point Protocol: IP (0x0021)) ns3::Ipv4Header (tos 0x0 DSCP Default ECN Not-ECT ttl 63 id 2 protocol 17 offset (bytes) 0 flags [none] length: 540 10.1.1.1 > 10.1.3.1) ns3::UdpHeader (length: 520 49153 > 9) Payload (size=512)
- 4.11144 /NodeList/2/DeviceList/3/$ns3::PointToPointNetDevice/TxQueue/Dequeue ns3::PppHeader (Point-to-Point Protocol: IP (0x0021)) ns3::Ipv4Header (tos 0x0 DSCP Default ECN Not-ECT ttl 63 id 2 protocol 17 offset (bytes) 0 flags [none] length: 540 10.1.1.1 > 10.1.3.1) ns3::UdpHeader (length: 520 49153 > 9) Payload (size=512)
r 4.11519 /NodeList/3/DeviceList/1/$ns3::PointToPointNetDevice/MacRx ns3::PppHeader (Point-to-Point Protocol: IP (0x0021)) ns3::Ipv4Header (tos 0x0 DSCP Default ECN Not-ECT ttl 63 id 1 protocol 17 offset (bytes) 0 flags [none] length: 540 10.1.1.1 > 10.1.3.1) ns3::UdpHeader (length: 520 49153 > 9) Payload (size=512)
+ 4.11771 /NodeList/0/DeviceList/1/$ns3::PointToPointNetDevice/TxQueue/Enqueue ns3::PppHeader (Point-to-Point Protocol: IP (0x0021)) ns3::Ipv4Header (tos 0x0 DSCP Default ECN Not-ECT ttl 64 id 3 protocol 17 offset (bytes) 0 flags [none] length: 540 10.1.1.1 > 10.1.3.1) ns3::UdpHeader (length: 520 49153 > 9) Payload (size=512)
- 4.11771 /NodeList/0/DeviceList/1/$ns3::PointToPointNetDevice/TxQueue/Dequeue ns3::PppHeader (Point-to-Point Protocol: IP (0x0021)) ns3::Ipv4Header (tos 0x0 DSCP Default ECN Not-ECT ttl 64 id 3 protocol 17 offset (bytes) 0 flags [none] length: 540 10.1.1.1 > 10.1.3.1) ns3::UdpHeader (length: 520 49153 > 9) Payload (size=512)
r 4.12058 /NodeList/2/DeviceList/1/$ns3::PointToPointNetDevice/MacRx ns3::PppHeader (Point-to-Point Protocol: IP (0x0021)) ns3::Ipv4Header (tos 0x0 DSCP Default ECN Not-ECT ttl 64 id 3 protocol 17 offset (bytes) 0 flags [none] length: 540 10.1.1.1 > 10.1.3.1) ns3::UdpHeader (length: 520 49153 > 9) Payload (size=512)
+ 4.12058 /NodeList/2/DeviceList/3/$ns3::PointToPointNetDevice/TxQueue/Enqueue ns3::PppHeader (Point-to-Point Protocol: IP (0x0021)) ns3::Ipv4Header (tos 0x0 DSCP Default ECN Not-ECT ttl 63 id 3 protocol 17 offset (bytes) 0 flags [none] length: 540 10.1.1.1 > 10.1.3.1) ns3::UdpHeader (length: 520 49153 > 9) Payload (size=512)
- 4.12058 /NodeList/2/DeviceList/3/$ns3::PointToPointNetDevice/TxQueue/Dequeue ns3::PppHeader (Point-to-Point Protocol: IP (0x0021)) ns3::Ipv4Header (tos 0x0 DSCP Default ECN Not-ECT ttl 63 id 3 protocol 17 offset (bytes) 0 flags [none] length: 540 10.1.1.1 > 10.1.3.1) ns3::UdpHeader (length: 520 49153 > 9) Payload (size=512)
r 4.12433 /NodeList/3/DeviceList/1/$ns3::PointToPointNetDevice/MacRx ns3::PppHeader (Point-to-Point Protocol: IP (0x0021)) ns3::Ipv4Header (tos 0x0 DSCP Default ECN Not-ECT ttl 63 id 2 protocol 17 offset (bytes) 0 flags [none] length: 540 10.1.1.1 > 10.1.3.1) ns3::UdpHeader (length: 520 49153 > 9) Payload (size=512)
+ 4.12686 /NodeList/0/DeviceList/1/$ns3::PointToPointNetDevice/TxQueue/Enqueue ns3::PppHeader (Point-to-Point Protocol: IP (0x0021)) ns3::Ipv4Header (tos 0x0 DSCP Default ECN Not-ECT ttl 64 id 4 protocol 17 offset (bytes) 0 flags [none] length: 540 10.1.1.1 > 10.1.3.1) ns3::UdpHeader (length: 520 49153 > 9) Payload (size=512)
- 4.12686 /NodeList/0/DeviceList/1/$ns3::PointToPointNetDevice/TxQueue/Dequeue ns3::PppHeader (Point-to-Point Protocol: IP (0x0021)) ns3::Ipv4Header (tos 0x0 DSCP Default ECN Not-ECT ttl 64 id 4 protocol 17 offset (bytes) 0 flags [none] length: 540 10.1.1.1 > 10.1.3.1) ns3::UdpHeader (length: 520 49153 > 9) Payload (size=512)
r 4.12972 /NodeList/2/DeviceList/1/$ns3::PointToPointNetDevice/MacRx ns3::PppHeader (Point-to-Point Protocol: IP (0x0021)) ns3::Ipv4Header (tos 0x0 DSCP Default ECN Not-ECT ttl 64 id 4 protocol 17 offset (bytes) 0 flags [none] length: 540 10.1.1.1 > 10.1.3.1) ns3::UdpHeader (length: 520 49153 > 9) Payload (size=512)
+ 4.12972 /NodeList/2/DeviceList/3/$ns3::PointToPointNetDevice/TxQueue/Enqueue ns3::PppHeader (Point-to-Point Protocol: IP (0x0021)) ns3::Ipv4Header (tos 0x0 DSCP Default ECN Not-ECT ttl 63 id 4 protocol 17 offset (bytes) 0 flags [none] length: 540 10.1.1.1 > 10.1.3.1) ns3::UdpHeader (length: 520 49153 > 9) Payload (size=512)
- 4.12972 /NodeList/2/DeviceList/3/$ns3::PointToPointNetDevice/TxQueue/Dequeue ns3::PppHeader (Point-to-Point Protocol: IP (0x0021)) ns3::Ipv4Header (tos 0x0 DSCP Default ECN Not-ECT ttl 63 id 4 protocol 17 offset (bytes) 0 flags [none] length: 540 10.1.1.1 > 10.1.3.1) ns3::UdpHeader (length: 520 49153 > 9) Payload (size=512)
r 4.13347 /NodeList/3/DeviceList/1/$ns3::PointToPointNetDevice/MacRx ns3::PppHeader (Point-to-Point Protocol: IP (0x0021)) ns3::Ipv4Header (tos 0x0 DSCP Default ECN Not-ECT ttl 63 id 3 protocol 17 offset (bytes) 0 flags [none] length: 540 10.1.1.1 > 10.1.3.1) ns3::UdpHeader (length: 520 49153 > 9) Payload (size=512)
+ 4.136 /NodeList/0/DeviceList/1/$ns3::PointToPointNetDevice/TxQueue/Enqueue ns3::PppHeader (Point-to-Point Protocol: IP (0x0021)) ns3::Ipv4Header (tos 0x0 DSCP Default ECN Not-ECT ttl 64 id 5 protocol 17 offset (bytes) 0 flags [none] length: 540 10.1.1.1 > 10.1.3.1) ns3::UdpHeader (length: 520 49153 > 9) Payload (size=512)
- 4.136 /NodeList/0/DeviceList/1/$ns3::PointToPointNetDevice/TxQueue/Dequeue ns3::PppHeader (Point-to-Point Protocol: IP (0x0021)) ns3::Ipv4Header (tos 0x0 DSCP Default ECN Not-ECT ttl 64 id 5 protocol 17 offset (bytes) 0 flags [none] length: 540 10.1.1.1 > 10.1.3.1) ns3::UdpHeader (length: 520 49153 > 9) Payload (size=512)
r 4.13887 /NodeList/2/DeviceList/1/$ns3::PointToPointNetDevice/MacRx ns3::PppHeader (Point-to-Point Protocol: IP (0x0021)) ns3::Ipv4Header (tos 0x0 DSCP Default ECN Not-ECT ttl 64 id 5 protocol 17 offset (bytes) 0 flags [none] length: 540 10.1.1.1 > 10.1.3.1) ns3::UdpHeader (length: 520 49153 > 9) Payload (size=512)
+ 4.13887 /NodeList/2/DeviceList/3/$ns3::PointToPointNetDevice/TxQueue/Enqueue ns3::PppHeader (Point-to-Point Protocol: IP (0x0021)) ns3::Ipv4Header (tos 0x0 DSCP Default ECN Not-ECT ttl 63 id 5 protocol 17 offset (bytes) 0 flags [none] length: 540 10.1.1.1 > 10.1.3.1) ns3::UdpHeader (length: 520 49153 > 9) Payload (size=512)
- 4.13887 /NodeList/2/DeviceList/3/$ns3::PointToPointNetDevice/TxQueue/Dequeue ns3::PppHeader (Point-to-Point Protocol: IP (0x0021)) ns3::Ipv4Header (tos 0x0 DSCP Default ECN Not-ECT ttl 63 id 5 protocol 17 offset (bytes) 0 flags [none] length: 540 10.1.1.1 > 10.1.3.1) ns3::UdpHeader (length: 520 49153 > 9) Payload (size=512)
r 4.14261 /NodeList/3/DeviceList/1/$ns3::PointToPointNetDevice/MacRx ns3::PppHeader (Point-to-Point Protocol: IP (0x0021)) ns3::Ipv4Header (tos 0x0 DSCP Default ECN Not-ECT ttl 63 id 4 protocol 17 offset (bytes) 0 flags [none] length: 540 10.1.1.1 > 10.1.3.1) ns3::UdpHeader (length: 520 49153 > 9) Payload (size=512)
+ 4.14514 /NodeList/0/DeviceList/1/$ns3::PointToPointNetDevice/TxQueue/Enqueue ns3::PppHeader (Point-to-Point Protocol: IP (0x0021)) ns3::Ipv4Header (tos 0x0 DSCP Default ECN Not-ECT ttl 64 id 6 protocol 17 offset (bytes) 0 flags [none] length: 540 10.1.1.1 > 10.1.3.1) ns3::UdpHeader (length: 520 49153 > 9) Payload (size=512)
- 4.14514 /NodeList/0/DeviceList/1/$ns3::PointToPointNetDevice/TxQueue/Dequeue ns3::PppHeader (Point-to-Point Protocol: IP (0x0021)) ns3::Ipv4Header (tos 0x0 DSCP Default ECN Not-ECT ttl 64 id 6 protocol 17 offset (bytes) 0 flags [none] length: 540 10.1.1.1 > 10.1.3.1) ns3::UdpHeader (length: 520 49153 > 9) Payload (size=512)
r 4.14801 /NodeList/2/DeviceList/1/$ns3::PointToPointNetDevice/MacRx ns3::PppHeader (Point-to-Point Protocol: IP (0x0021)) ns3::Ipv4Header (tos 0x0 DSCP Default ECN Not-ECT ttl 64 id 6 protocol 17 offset (bytes) 0 flags [none] length: 540 10.1.1.1 > 10.1.3.1) ns3::UdpHeader (length: 520 49153 > 9) Payload (size=512)