+ 0.07 /NodeList/4/DeviceList/1/$ns3::PointToPointNetDevice/TxQueue/Enqueue ns3::PppHeader (Point-to-Point Protocol: IP (0x0021)) ns3::Ipv4Header (tos 0x0 DSCP Default ECN Not-ECT ttl 1 id 0 protocol 17 offset (bytes) 0 flags [none] length: 48 10.1.4.2 > 10.1.4.255) ns3::UdpHeader (length: 28 654 > 654) ns3::aodv::TypeHeader (RREP) ns3::aodv::RrepHeader (destination: ipv4 10.1.4.2 sequence number 0 source ipv4 10.1.4.2 lifetime 2000 acknowledgment required flag 0)
- 0.07 /NodeList/4/DeviceList/1/$ns3::PointToPointNetDevice/TxQueue/Dequeue ns3::PppHeader (Point-to-Point Protocol: IP (0x0021)) ns3::Ipv4Header (tos 0x0 DSCP Default ECN Not-ECT ttl 1 id 0 protocol 17 offset (bytes) 0 flags [none] length: 48 10.1.4.2 > 10.1.4.255) ns3::UdpHeader (length: 28 654 > 654) ns3::aodv::TypeHeader (RREP) ns3::aodv::RrepHeader (destination: ipv4 10.1.4.2 sequence number 0 source ipv4 10.1.4.2 lifetime 2000 acknowledgment required flag 0)
r 0.0802667 /NodeList/3/DeviceList/2/$ns3::PointToPointNetDevice/MacRx ns3::PppHeader (Point-to-Point Protocol: IP (0x0021)) ns3::Ipv4Header (tos 0x0 DSCP Default ECN Not-ECT ttl 1 id 0 protocol 17 offset (bytes) 0 flags [none] length: 48 10.1.4.2 > 10.1.4.255) ns3::UdpHeader (length: 28 654 > 654) ns3::aodv::TypeHeader (RREP) ns3::aodv::RrepHeader (destination: ipv4 10.1.4.2 sequence number 0 source ipv4 10.1.4.2 lifetime 2000 acknowledgment required flag 0)
+ 0.202034 /NodeList/2/DeviceList/1/$ns3::PointToPointNetDevice/TxQueue/Enqueue ns3::PppHeader (Point-to-Point Protocol: IP (0x0021)) ns3::Ipv4Header (tos 0x0 DSCP Default ECN Not-ECT ttl 64 id 0 protocol 17 offset (bytes) 0 flags [none] length: 68 10.1.1.2 > 10.1.1.255) ns3::UdpHeader (length: 48 698 > 698) ns3::olsr::PacketHeader () ns3::olsr::MessageHeader () ns3::olsr::MessageHeader ()
- 0.202034 /NodeList/2/DeviceList/1/$ns3::PointToPointNetDevice/TxQueue/Dequeue ns3::PppHeader (Point-to-Point Protocol: IP (0x0021)) ns3::Ipv4Header (tos 0x0 DSCP Default ECN Not-ECT ttl 64 id 0 protocol 17 offset (bytes) 0 flags [none] length: 68 10.1.1.2 > 10.1.1.255) ns3::UdpHeader (length: 48 698 > 698) ns3::olsr::PacketHeader () ns3::olsr::MessageHeader () ns3::olsr::MessageHeader ()
+ 0.202034 /NodeList/2/DeviceList/2/$ns3::PointToPointNetDevice/TxQueue/Enqueue ns3::PppHeader (Point-to-Point Protocol: IP (0x0021)) ns3::Ipv4Header (tos 0x0 DSCP Default ECN Not-ECT ttl 64 id 0 protocol 17 offset (bytes) 0 flags [none] length: 68 10.1.2.2 > 10.1.2.255) ns3::UdpHeader (length: 48 698 > 698) ns3::olsr::PacketHeader () ns3::olsr::MessageHeader () ns3::olsr::MessageHeader ()
- 0.202034 /NodeList/2/DeviceList/2/$ns3::PointToPointNetDevice/TxQueue/Dequeue ns3::PppHeader (Point-to-Point Protocol: IP (0x0021)) ns3::Ipv4Header (tos 0x0 DSCP Default ECN Not-ECT ttl 64 id 0 protocol 17 offset (bytes) 0 flags [none] length: 68 10.1.2.2 > 10.1.2.255) ns3::UdpHeader (length: 48 698 > 698) ns3::olsr::PacketHeader () ns3::olsr::MessageHeader () ns3::olsr::MessageHeader ()
+ 0.202034 /NodeList/2/DeviceList/3/$ns3::PointToPointNetDevice/TxQueue/Enqueue ns3::PppHeader (Point-to-Point Protocol: IP (0x0021)) ns3::Ipv4Header (tos 0x0 DSCP Default ECN Not-ECT ttl 64 id 0 protocol 17 offset (bytes) 0 flags [none] length: 68 10.1.3.2 > 10.1.3.255) ns3::UdpHeader (length: 48 698 > 698) ns3::olsr::PacketHeader () ns3::olsr::MessageHeader () ns3::olsr::MessageHeader ()
- 0.202034 /NodeList/2/DeviceList/3/$ns3::PointToPointNetDevice/TxQueue/Dequeue ns3::PppHeader (Point-to-Point Protocol: IP (0x0021)) ns3::Ipv4Header (tos 0x0 DSCP Default ECN Not-ECT ttl 64 id 0 protocol 17 offset (bytes) 0 flags [none] length: 68 10.1.3.2 > 10.1.3.255) ns3::UdpHeader (length: 48 698 > 698) ns3::olsr::PacketHeader () ns3::olsr::MessageHeader () ns3::olsr::MessageHeader ()
r 0.204146 /NodeList/0/DeviceList/1/$ns3::PointToPointNetDevice/MacRx ns3::PppHeader (Point-to-Point Protocol: IP (0x0021)) ns3::Ipv4Header (tos 0x0 DSCP Default ECN Not-ECT ttl 64 id 0 protocol 17 offset (bytes) 0 flags [none] length: 68 10.1.1.2 > 10.1.1.255) ns3::UdpHeader (length: 48 698 > 698) ns3::olsr::PacketHeader () ns3::olsr::MessageHeader () ns3::olsr::MessageHeader ()
r 0.204146 /NodeList/1/DeviceList/1/$ns3::PointToPointNetDevice/MacRx ns3::PppHeader (Point-to-Point Protocol: IP (0x0021)) ns3::Ipv4Header (tos 0x0 DSCP Default ECN Not-ECT ttl 64 id 0 protocol 17 offset (bytes) 0 flags [none] length: 68 10.1.2.2 > 10.1.2.255) ns3::UdpHeader (length: 48 698 > 698) ns3::olsr::PacketHeader () ns3::olsr::MessageHeader () ns3::olsr::MessageHeader ()
r 0.212408 /NodeList/3/DeviceList/1/$ns3::PointToPointNetDevice/MacRx ns3::PppHeader (Point-to-Point Protocol: IP (0x0021)) ns3::Ipv4Header (tos 0x0 DSCP Default ECN Not-ECT ttl 64 id 0 protocol 17 offset (bytes) 0 flags [none] length: 68 10.1.3.2 > 10.1.3.255) ns3::UdpHeader (length: 48 698 > 698) ns3::olsr::PacketHeader () ns3::olsr::MessageHeader () ns3::olsr::MessageHeader ()
+ 0.257317 /NodeList/3/DeviceList/2/$ns3::PointToPointNetDevice/TxQueue/Enqueue ns3::PppHeader (Point-to-Point Protocol: IP (0x0021)) ns3::Ipv4Header (tos 0x0 DSCP Default ECN Not-ECT ttl 64 id 0 protocol 17 offset (bytes) 0 flags [none] length: 64 10.1.4.1 > 10.1.4.255) ns3::UdpHeader (length: 44 698 > 698) ns3::olsr::PacketHeader () ns3::olsr::MessageHeader () ns3::olsr::MessageHeader ()
- 0.257317 /NodeList/3/DeviceList/2/$ns3::PointToPointNetDevice/TxQueue/Dequeue ns3::PppHeader (Point-to-Point Protocol: IP (0x0021)) ns3::Ipv4Header (tos 0x0 DSCP Default ECN Not-ECT ttl 64 id 0 protocol 17 offset (bytes) 0 flags [none] length: 64 10.1.4.1 > 10.1.4.255) ns3::UdpHeader (length: 44 698 > 698) ns3::olsr::PacketHeader () ns3::olsr::MessageHeader () ns3::olsr::MessageHeader ()
+ 0.257317 /NodeList/3/DeviceList/1/$ns3::PointToPointNetDevice/TxQueue/Enqueue ns3::PppHeader (Point-to-Point Protocol: IP (0x0021)) ns3::Ipv4Header (tos 0x0 DSCP Default ECN Not-ECT ttl 64 id 0 protocol 17 offset (bytes) 0 flags [none] length: 64 10.1.3.1 > 10.1.3.255) ns3::UdpHeader (length: 44 698 > 698) ns3::olsr::PacketHeader () ns3::olsr::MessageHeader () ns3::olsr::MessageHeader ()
- 0.257317 /NodeList/3/DeviceList/1/$ns3::PointToPointNetDevice/TxQueue/Dequeue ns3::PppHeader (Point-to-Point Protocol: IP (0x0021)) ns3::Ipv4Header (tos 0x0 DSCP Default ECN Not-ECT ttl 64 id 0 protocol 17 offset (bytes) 0 flags [none] length: 64 10.1.3.1 > 10.1.3.255) ns3::UdpHeader (length: 44 698 > 698) ns3::olsr::PacketHeader () ns3::olsr::MessageHeader () ns3::olsr::MessageHeader ()
r 0.267669 /NodeList/4/DeviceList/1/$ns3::PointToPointNetDevice/MacRx ns3::PppHeader (Point-to-Point Protocol: IP (0x0021)) ns3::Ipv4Header (tos 0x0 DSCP Default ECN Not-ECT ttl 64 id 0 protocol 17 offset (bytes) 0 flags [none] length: 64 10.1.4.1 > 10.1.4.255) ns3::UdpHeader (length: 44 698 > 698) ns3::olsr::PacketHeader () ns3::olsr::MessageHeader () ns3::olsr::MessageHeader ()
+ 0.267669 /NodeList/4/DeviceList/1/$ns3::PointToPointNetDevice/TxQueue/Enqueue ns3::PppHeader (Point-to-Point Protocol: IP (0x0021)) ns3::Ipv4Header (tos 0x0 DSCP Default ECN Not-ECT ttl 63 id 0 protocol 17 offset (bytes) 0 flags [none] length: 64 10.1.4.1 > 10.1.4.255) ns3::UdpHeader (length: 44 698 > 698) ns3::olsr::PacketHeader () ns3::olsr::MessageHeader () ns3::olsr::MessageHeader ()
- 0.267669 /NodeList/4/DeviceList/1/$ns3::PointToPointNetDevice/TxQueue/Dequeue ns3::PppHeader (Point-to-Point Protocol: IP (0x0021)) ns3::Ipv4Header (tos 0x0 DSCP Default ECN Not-ECT ttl 63 id 0 protocol 17 offset (bytes) 0 flags [none] length: 64 10.1.4.1 > 10.1.4.255) ns3::UdpHeader (length: 44 698 > 698) ns3::olsr::PacketHeader () ns3::olsr::MessageHeader () ns3::olsr::MessageHeader ()
r 0.267669 /NodeList/2/DeviceList/3/$ns3::PointToPointNetDevice/MacRx ns3::PppHeader (Point-to-Point Protocol: IP (0x0021)) ns3::Ipv4Header (tos 0x0 DSCP Default ECN Not-ECT ttl 64 id 0 protocol 17 offset (bytes) 0 flags [none] length: 64 10.1.3.1 > 10.1.3.255) ns3::UdpHeader (length: 44 698 > 698) ns3::olsr::PacketHeader () ns3::olsr::MessageHeader () ns3::olsr::MessageHeader ()
r 0.278021 /NodeList/3/DeviceList/2/$ns3::PointToPointNetDevice/MacRx ns3::PppHeader (Point-to-Point Protocol: IP (0x0021)) ns3::Ipv4Header (tos 0x0 DSCP Default ECN Not-ECT ttl 63 id 0 protocol 17 offset (bytes) 0 flags [none] length: 64 10.1.4.1 > 10.1.4.255) ns3::UdpHeader (length: 44 698 > 698) ns3::olsr::PacketHeader () ns3::olsr::MessageHeader () ns3::olsr::MessageHeader ()
+ 0.296644 /NodeList/1/DeviceList/1/$ns3::PointToPointNetDevice/TxQueue/Enqueue ns3::PppHeader (Point-to-Point Protocol: IP (0x0021)) ns3::Ipv4Header (tos 0x0 DSCP Default ECN Not-ECT ttl 64 id 0 protocol 17 offset (bytes) 0 flags [none] length: 48 10.1.2.1 > 10.1.2.255) ns3::UdpHeader (length: 28 698 > 698) ns3::olsr::PacketHeader () ns3::olsr::MessageHeader ()
- 0.296644 /NodeList/1/DeviceList/1/$ns3::PointToPointNetDevice/TxQueue/Dequeue ns3::PppHeader (Point-to-Point Protocol: IP (0x0021)) ns3::Ipv4Header (tos 0x0 DSCP Default ECN Not-ECT ttl 64 id 0 protocol 17 offset (bytes) 0 flags [none] length: 48 10.1.2.1 > 10.1.2.255) ns3::UdpHeader (length: 28 698 > 698) ns3::olsr::PacketHeader () ns3::olsr::MessageHeader ()
r 0.298724 /NodeList/2/DeviceList/2/$ns3::PointToPointNetDevice/MacRx ns3::PppHeader (Point-to-Point Protocol: IP (0x0021)) ns3::Ipv4Header (tos 0x0 DSCP Default ECN Not-ECT ttl 64 id 0 protocol 17 offset (bytes) 0 flags [none] length: 48 10.1.2.1 > 10.1.2.255) ns3::UdpHeader (length: 28 698 > 698) ns3::olsr::PacketHeader () ns3::olsr::MessageHeader ()
+ 0.417575 /NodeList/0/DeviceList/1/$ns3::PointToPointNetDevice/TxQueue/Enqueue ns3::PppHeader (Point-to-Point Protocol: IP (0x0021)) ns3::Ipv4Header (tos 0x0 DSCP Default ECN Not-ECT ttl 64 id 0 protocol 17 offset (bytes) 0 flags [none] length: 48 10.1.1.1 > 10.1.1.255) ns3::UdpHeader (length: 28 698 > 698) ns3::olsr::PacketHeader () ns3::olsr::MessageHeader ()
- 0.417575 /NodeList/0/DeviceList/1/$ns3::PointToPointNetDevice/TxQueue/Dequeue ns3::PppHeader (Point-to-Point Protocol: IP (0x0021)) ns3::Ipv4Header (tos 0x0 DSCP Default ECN Not-ECT ttl 64 id 0 protocol 17 offset (bytes) 0 flags [none] length: 48 10.1.1.1 > 10.1.1.255) ns3::UdpHeader (length: 28 698 > 698) ns3::olsr::PacketHeader () ns3::olsr::MessageHeader ()
r 0.419655 /NodeList/2/DeviceList/1/$ns3::PointToPointNetDevice/MacRx ns3::PppHeader (Point-to-Point Protocol: IP (0x0021)) ns3::Ipv4Header (tos 0x0 DSCP Default ECN Not-ECT ttl 64 id 0 protocol 17 offset (bytes) 0 flags [none] length: 48 10.1.1.1 > 10.1.1.255) ns3::UdpHeader (length: 28 698 > 698) ns3::olsr::PacketHeader () ns3::olsr::MessageHeader ()
+ 1.07 /NodeList/4/DeviceList/1/$ns3::PointToPointNetDevice/TxQueue/Enqueue ns3::PppHeader (Point-to-Point Protocol: IP (0x0021)) ns3::Ipv4Header (tos 0x0 DSCP Default ECN Not-ECT ttl 1 id 1 protocol 17 offset (bytes) 0 flags [none] length: 48 10.1.4.2 > 10.1.4.255) ns3::UdpHeader (length: 28 654 > 654) ns3::aodv::TypeHeader (RREP) ns3::aodv::RrepHeader (destination: ipv4 10.1.4.2 sequence number 0 source ipv4 10.1.4.2 lifetime 2000 acknowledgment required flag 0)
- 1.07 /NodeList/4/DeviceList/1/$ns3::PointToPointNetDevice/TxQueue/Dequeue ns3::PppHeader (Point-to-Point Protocol: IP (0x0021)) ns3::Ipv4Header (tos 0x0 DSCP Default ECN Not-ECT ttl 1 id 1 protocol 17 offset (bytes) 0 flags [none] length: 48 10.1.4.2 > 10.1.4.255) ns3::UdpHeader (length: 28 654 > 654) ns3::aodv::TypeHeader (RREP) ns3::aodv::RrepHeader (destination: ipv4 10.1.4.2 sequence number 0 source ipv4 10.1.4.2 lifetime 2000 acknowledgment required flag 0)
r 1.08027 /NodeList/3/DeviceList/2/$ns3::PointToPointNetDevice/MacRx ns3::PppHeader (Point-to-Point Protocol: IP (0x0021)) ns3::Ipv4Header (tos 0x0 DSCP Default ECN Not-ECT ttl 1 id 1 protocol 17 offset (bytes) 0 flags [none] length: 48 10.1.4.2 > 10.1.4.255) ns3::UdpHeader (length: 28 654 > 654) ns3::aodv::TypeHeader (RREP) ns3::aodv::RrepHeader (destination: ipv4 10.1.4.2 sequence number 0 source ipv4 10.1.4.2 lifetime 2000 acknowledgment required flag 0)
+ 2.074 /NodeList/4/DeviceList/1/$ns3::PointToPointNetDevice/TxQueue/Enqueue ns3::PppHeader (Point-to-Point Protocol: IP (0x0021)) ns3::Ipv4Header (tos 0x0 DSCP Default ECN Not-ECT ttl 1 id 2 protocol 17 offset (bytes) 0 flags [none] length: 48 10.1.4.2 > 10.1.4.255) ns3::UdpHeader (length: 28 654 > 654) ns3::aodv::TypeHeader (RREP) ns3::aodv::RrepHeader (destination: ipv4 10.1.4.2 sequence number 0 source ipv4 10.1.4.2 lifetime 2000 acknowledgment required flag 0)
- 2.074 /NodeList/4/DeviceList/1/$ns3::PointToPointNetDevice/TxQueue/Dequeue ns3::PppHeader (Point-to-Point Protocol: IP (0x0021)) ns3::Ipv4Header (tos 0x0 DSCP Default ECN Not-ECT ttl 1 id 2 protocol 17 offset (bytes) 0 flags [none] length: 48 10.1.4.2 > 10.1.4.255) ns3::UdpHeader (length: 28 654 > 654) ns3::aodv::TypeHeader (RREP) ns3::aodv::RrepHeader (destination: ipv4 10.1.4.2 sequence number 0 source ipv4 10.1.4.2 lifetime 2000 acknowledgment required flag 0)
r 2.08427 /NodeList/3/DeviceList/2/$ns3::PointToPointNetDevice/MacRx ns3::PppHeader (Point-to-Point Protocol: IP (0x0021)) ns3::Ipv4Header (tos 0x0 DSCP Default ECN Not-ECT ttl 1 id 2 protocol 17 offset (bytes) 0 flags [none] length: 48 10.1.4.2 > 10.1.4.255) ns3::UdpHeader (length: 28 654 > 654) ns3::aodv::TypeHeader (RREP) ns3::aodv::RrepHeader (destination: ipv4 10.1.4.2 sequence number 0 source ipv4 10.1.4.2 lifetime 2000 acknowledgment required flag 0)
+ 2.12656 /NodeList/1/DeviceList/1/$ns3::PointToPointNetDevice/TxQueue/Enqueue ns3::PppHeader (Point-to-Point Protocol: IP (0x0021)) ns3::Ipv4Header (tos 0x0 DSCP Default ECN Not-ECT ttl 64 id 1 protocol 17 offset (bytes) 0 flags [none] length: 56 10.1.2.1 > 10.1.2.255) ns3::UdpHeader (length: 36 698 > 698) ns3::olsr::PacketHeader () ns3::olsr::MessageHeader ()
- 2.12656 /NodeList/1/DeviceList/1/$ns3::PointToPointNetDevice/TxQueue/Dequeue ns3::PppHeader (Point-to-Point Protocol: IP (0x0021)) ns3::Ipv4Header (tos 0x0 DSCP Default ECN Not-ECT ttl 64 id 1 protocol 17 offset (bytes) 0 flags [none] length: 56 10.1.2.1 > 10.1.2.255) ns3::UdpHeader (length: 36 698 > 698) ns3::olsr::PacketHeader () ns3::olsr::MessageHeader ()
r 2.12865 /NodeList/2/DeviceList/2/$ns3::PointToPointNetDevice/MacRx ns3::PppHeader (Point-to-Point Protocol: IP (0x0021)) ns3::Ipv4Header (tos 0x0 DSCP Default ECN Not-ECT ttl 64 id 1 protocol 17 offset (bytes) 0 flags [none] length: 56 10.1.2.1 > 10.1.2.255) ns3::UdpHeader (length: 36 698 > 698) ns3::olsr::PacketHeader () ns3::olsr::MessageHeader ()
+ 2.18211 /NodeList/3/DeviceList/2/$ns3::PointToPointNetDevice/TxQueue/Enqueue ns3::PppHeader (Point-to-Point Protocol: IP (0x0021)) ns3::Ipv4Header (tos 0x0 DSCP Default ECN Not-ECT ttl 64 id 1 protocol 17 offset (bytes) 0 flags [none] length: 56 10.1.4.1 > 10.1.4.255) ns3::UdpHeader (length: 36 698 > 698) ns3::olsr::PacketHeader () ns3::olsr::MessageHeader ()
- 2.18211 /NodeList/3/DeviceList/2/$ns3::PointToPointNetDevice/TxQueue/Dequeue ns3::PppHeader (Point-to-Point Protocol: IP (0x0021)) ns3::Ipv4Header (tos 0x0 DSCP Default ECN Not-ECT ttl 64 id 1 protocol 17 offset (bytes) 0 flags [none] length: 56 10.1.4.1 > 10.1.4.255) ns3::UdpHeader (length: 36 698 > 698) ns3::olsr::PacketHeader () ns3::olsr::MessageHeader ()
+ 2.18211 /NodeList/3/DeviceList/1/$ns3::PointToPointNetDevice/TxQueue/Enqueue ns3::PppHeader (Point-to-Point Protocol: IP (0x0021)) ns3::Ipv4Header (tos 0x0 DSCP Default ECN Not-ECT ttl 64 id 1 protocol 17 offset (bytes) 0 flags [none] length: 56 10.1.3.1 > 10.1.3.255) ns3::UdpHeader (length: 36 698 > 698) ns3::olsr::PacketHeader () ns3::olsr::MessageHeader ()
- 2.18211 /NodeList/3/DeviceList/1/$ns3::PointToPointNetDevice/TxQueue/Dequeue ns3::PppHeader (Point-to-Point Protocol: IP (0x0021)) ns3::Ipv4Header (tos 0x0 DSCP Default ECN Not-ECT ttl 64 id 1 protocol 17 offset (bytes) 0 flags [none] length: 56 10.1.3.1 > 10.1.3.255) ns3::UdpHeader (length: 36 698 > 698) ns3::olsr::PacketHeader () ns3::olsr::MessageHeader ()
r 2.19242 /NodeList/4/DeviceList/1/$ns3::PointToPointNetDevice/MacRx ns3::PppHeader (Point-to-Point Protocol: IP (0x0021)) ns3::Ipv4Header (tos 0x0 DSCP Default ECN Not-ECT ttl 64 id 1 protocol 17 offset (bytes) 0 flags [none] length: 56 10.1.4.1 > 10.1.4.255) ns3::UdpHeader (length: 36 698 > 698) ns3::olsr::PacketHeader () ns3::olsr::MessageHeader ()
+ 2.19242 /NodeList/4/DeviceList/1/$ns3::PointToPointNetDevice/TxQueue/Enqueue ns3::PppHeader (Point-to-Point Protocol: IP (0x0021)) ns3::Ipv4Header (tos 0x0 DSCP Default ECN Not-ECT ttl 63 id 1 protocol 17 offset (bytes) 0 flags [none] length: 56 10.1.4.1 > 10.1.4.255) ns3::UdpHeader (length: 36 698 > 698) ns3::olsr::PacketHeader () ns3::olsr::MessageHeader ()
- 2.19242 /NodeList/4/DeviceList/1/$ns3::PointToPointNetDevice/TxQueue/Dequeue ns3::PppHeader (Point-to-Point Protocol: IP (0x0021)) ns3::Ipv4Header (tos 0x0 DSCP Default ECN Not-ECT ttl 63 id 1 protocol 17 offset (bytes) 0 flags [none] length: 56 10.1.4.1 > 10.1.4.255) ns3::UdpHeader (length: 36 698 > 698) ns3::olsr::PacketHeader () ns3::olsr::MessageHeader ()
r 2.19242 /NodeList/2/DeviceList/3/$ns3::PointToPointNetDevice/MacRx ns3::PppHeader (Point-to-Point Protocol: IP (0x0021)) ns3::Ipv4Header (tos 0x0 DSCP Default ECN Not-ECT ttl 64 id 1 protocol 17 offset (bytes) 0 flags [none] length: 56 10.1.3.1 > 10.1.3.255) ns3::UdpHeader (length: 36 698 > 698) ns3::olsr::PacketHeader () ns3::olsr::MessageHeader ()
r 2.20273 /NodeList/3/DeviceList/2/$ns3::PointToPointNetDevice/MacRx ns3::PppHeader (Point-to-Point Protocol: IP (0x0021)) ns3::Ipv4Header (tos 0x0 DSCP Default ECN Not-ECT ttl 63 id 1 protocol 17 offset (bytes) 0 flags [none] length: 56 10.1.4.1 > 10.1.4.255) ns3::UdpHeader (length: 36 698 > 698) ns3::olsr::PacketHeader () ns3::olsr::MessageHeader ()
+ 2.26308 /NodeList/0/DeviceList/1/$ns3::PointToPointNetDevice/TxQueue/Enqueue ns3::PppHeader (Point-to-Point Protocol: IP (0x0021)) ns3::Ipv4Header (tos 0x0 DSCP Default ECN Not-ECT ttl 64 id 1 protocol 17 offset (bytes) 0 flags [none] length: 56 10.1.1.1 > 10.1.1.255) ns3::UdpHeader (length: 36 698 > 698) ns3::olsr::PacketHeader () ns3::olsr::MessageHeader ()
- 2.26308 /NodeList/0/DeviceList/1/$ns3::PointToPointNetDevice/TxQueue/Dequeue ns3::PppHeader (Point-to-Point Protocol: IP (0x0021)) ns3::Ipv4Header (tos 0x0 DSCP Default ECN Not-ECT ttl 64 id 1 protocol 17 offset (bytes) 0 flags [none] length: 56 10.1.1.1 > 10.1.1.255) ns3::UdpHeader (length: 36 698 > 698) ns3::olsr::PacketHeader () ns3::olsr::MessageHeader ()
r 2.26518 /NodeList/2/DeviceList/1/$ns3::PointToPointNetDevice/MacRx ns3::PppHeader (Point-to-Point Protocol: IP (0x0021)) ns3::Ipv4Header (tos 0x0 DSCP Default ECN Not-ECT ttl 64 id 1 protocol 17 offset (bytes) 0 flags [none] length: 56 10.1.1.1 > 10.1.1.255) ns3::UdpHeader (length: 36 698 > 698) ns3::olsr::PacketHeader () ns3::olsr::MessageHeader ()
+ 2.43071 /NodeList/2/DeviceList/1/$ns3::PointToPointNetDevice/TxQueue/Enqueue ns3::PppHeader (Point-to-Point Protocol: IP (0x0021)) ns3::Ipv4Header (tos 0x0 DSCP Default ECN Not-ECT ttl 64 id 1 protocol 17 offset (bytes) 0 flags [none] length: 72 10.1.1.2 > 10.1.1.255) ns3::UdpHeader (length: 52 698 > 698) ns3::olsr::PacketHeader () ns3::olsr::MessageHeader ()
- 2.43071 /NodeList/2/DeviceList/1/$ns3::PointToPointNetDevice/TxQueue/Dequeue ns3::PppHeader (Point-to-Point Protocol: IP (0x0021)) ns3::Ipv4Header (tos 0x0 DSCP Default ECN Not-ECT ttl 64 id 1 protocol 17 offset (bytes) 0 flags [none] length: 72 10.1.1.2 > 10.1.1.255) ns3::UdpHeader (length: 52 698 > 698) ns3::olsr::PacketHeader () ns3::olsr::MessageHeader ()
+ 2.43071 /NodeList/2/DeviceList/2/$ns3::PointToPointNetDevice/TxQueue/Enqueue ns3::PppHeader (Point-to-Point Protocol: IP (0x0021)) ns3::Ipv4Header (tos 0x0 DSCP Default ECN Not-ECT ttl 64 id 1 protocol 17 offset (bytes) 0 flags [none] length: 72 10.1.2.2 > 10.1.2.255) ns3::UdpHeader (length: 52 698 > 698) ns3::olsr::PacketHeader () ns3::olsr::MessageHeader ()
- 2.43071 /NodeList/2/DeviceList/2/$ns3::PointToPointNetDevice/TxQueue/Dequeue ns3::PppHeader (Point-to-Point Protocol: IP (0x0021)) ns3::Ipv4Header (tos 0x0 DSCP Default ECN Not-ECT ttl 64 id 1 protocol 17 offset (bytes) 0 flags [none] length: 72 10.1.2.2 > 10.1.2.255) ns3::UdpHeader (length: 52 698 > 698) ns3::olsr::PacketHeader () ns3::olsr::MessageHeader ()
+ 2.43071 /NodeList/2/DeviceList/3/$ns3::PointToPointNetDevice/TxQueue/Enqueue ns3::PppHeader (Point-to-Point Protocol: IP (0x0021)) ns3::Ipv4Header (tos 0x0 DSCP Default ECN Not-ECT ttl 64 id 1 protocol 17 offset (bytes) 0 flags [none] length: 72 10.1.3.2 > 10.1.3.255) ns3::UdpHeader (length: 52 698 > 698) ns3::olsr::PacketHeader () ns3::olsr::MessageHeader ()
- 2.43071 /NodeList/2/DeviceList/3/$ns3::PointToPointNetDevice/TxQueue/Dequeue ns3::PppHeader (Point-to-Point Protocol: IP (0x0021)) ns3::Ipv4Header (tos 0x0 DSCP Default ECN Not-ECT ttl 64 id 1 protocol 17 offset (bytes) 0 flags [none] length: 72 10.1.3.2 > 10.1.3.255) ns3::UdpHeader (length: 52 698 > 698) ns3::olsr::PacketHeader () ns3::olsr::MessageHeader ()
r 2.43283 /NodeList/0/DeviceList/1/$ns3::PointToPointNetDevice/MacRx ns3::PppHeader (Point-to-Point Protocol: IP (0x0021)) ns3::Ipv4Header (tos 0x0 DSCP Default ECN Not-ECT ttl 64 id 1 protocol 17 offset (bytes) 0 flags [none] length: 72 10.1.1.2 > 10.1.1.255) ns3::UdpHeader (length: 52 698 > 698) ns3::olsr::PacketHeader () ns3::olsr::MessageHeader ()
r 2.43283 /NodeList/1/DeviceList/1/$ns3::PointToPointNetDevice/MacRx ns3::PppHeader (Point-to-Point Protocol: IP (0x0021)) ns3::Ipv4Header (tos 0x0 DSCP Default ECN Not-ECT ttl 64 id 1 protocol 17 offset (bytes) 0 flags [none] length: 72 10.1.2.2 > 10.1.2.255) ns3::UdpHeader (length: 52 698 > 698) ns3::olsr::PacketHeader () ns3::olsr::MessageHeader ()
r 2.44111 /NodeList/3/DeviceList/1/$ns3::PointToPointNetDevice/MacRx ns3::PppHeader (Point-to-Point Protocol: IP (0x0021)) ns3::Ipv4Header (tos 0x0 DSCP Default ECN Not-ECT ttl 64 id 1 protocol 17 offset (bytes) 0 flags [none] length: 72 10.1.3.2 > 10.1.3.255) ns3::UdpHeader (length: 52 698 > 698) ns3::olsr::PacketHeader () ns3::olsr::MessageHeader ()
+ 3.072 /NodeList/4/DeviceList/1/$ns3::PointToPointNetDevice/TxQueue/Enqueue ns3::PppHeader (Point-to-Point Protocol: IP (0x0021)) ns3::Ipv4Header (tos 0x0 DSCP Default ECN Not-ECT ttl 1 id 3 protocol 17 offset (bytes) 0 flags [none] length: 48 10.1.4.2 > 10.1.4.255) ns3::UdpHeader (length: 28 654 > 654) ns3::aodv::TypeHeader (RREP) ns3::aodv::RrepHeader (destination: ipv4 10.1.4.2 sequence number 0 source ipv4 10.1.4.2 lifetime 2000 acknowledgment required flag 0)
- 3.072 /NodeList/4/DeviceList/1/$ns3::PointToPointNetDevice/TxQueue/Dequeue ns3::PppHeader (Point-to-Point Protocol: IP (0x0021)) ns3::Ipv4Header (tos 0x0 DSCP Default ECN Not-ECT ttl 1 id 3 protocol 17 offset (bytes) 0 flags [none] length: 48 10.1.4.2 > 10.1.4.255) ns3::UdpHeader (length: 28 654 > 654) ns3::aodv::TypeHeader (RREP) ns3::aodv::RrepHeader (destination: ipv4 10.1.4.2 sequence number 0 source ipv4 10.1.4.2 lifetime 2000 acknowledgment required flag 0)
r 3.08227 /NodeList/3/DeviceList/2/$ns3::PointToPointNetDevice/MacRx ns3::PppHeader (Point-to-Point Protocol: IP (0x0021)) ns3::Ipv4Header (tos 0x0 DSCP Default ECN Not-ECT ttl 1 id 3 protocol 17 offset (bytes) 0 flags [none] length: 48 10.1.4.2 > 10.1.4.255) ns3::UdpHeader (length: 28 654 > 654) ns3::aodv::TypeHeader (RREP) ns3::aodv::RrepHeader (destination: ipv4 10.1.4.2 sequence number 0 source ipv4 10.1.4.2 lifetime 2000 acknowledgment required flag 0)
+ 4.069 /NodeList/4/DeviceList/1/$ns3::PointToPointNetDevice/TxQueue/Enqueue ns3::PppHeader (Point-to-Point Protocol: IP (0x0021)) ns3::Ipv4Header (tos 0x0 DSCP Default ECN Not-ECT ttl 1 id 4 protocol 17 offset (bytes) 0 flags [none] length: 48 10.1.4.2 > 10.1.4.255) ns3::UdpHeader (length: 28 654 > 654) ns3::aodv::TypeHeader (RREP) ns3::aodv::RrepHeader (destination: ipv4 10.1.4.2 sequence number 0 source ipv4 10.1.4.2 lifetime 2000 acknowledgment required flag 0)
- 4.069 /NodeList/4/DeviceList/1/$ns3::PointToPointNetDevice/TxQueue/Dequeue ns3::PppHeader (Point-to-Point Protocol: IP (0x0021)) ns3::Ipv4Header (tos 0x0 DSCP Default ECN Not-ECT ttl 1 id 4 protocol 17 offset (bytes) 0 flags [none] length: 48 10.1.4.2 > 10.1.4.255) ns3::UdpHeader (length: 28 654 > 654) ns3::aodv::TypeHeader (RREP) ns3::aodv::RrepHeader (destination: ipv4 10.1.4.2 sequence number 0 source ipv4 10.1.4.2 lifetime 2000 acknowledgment required flag 0)
r 4.07927 /NodeList/3/DeviceList/2/$ns3::PointToPointNetDevice/MacRx ns3::PppHeader (Point-to-Point Protocol: IP (0x0021)) ns3::Ipv4Header (tos 0x0 DSCP Default ECN Not-ECT ttl 1 id 4 protocol 17 offset (bytes) 0 flags [none] length: 48 10.1.4.2 > 10.1.4.255) ns3::UdpHeader (length: 28 654 > 654) ns3::aodv::TypeHeader (RREP) ns3::aodv::RrepHeader (destination: ipv4 10.1.4.2 sequence number 0 source ipv4 10.1.4.2 lifetime 2000 acknowledgment required flag 0)
+ 4.08789 /NodeList/2/DeviceList/1/$ns3::PointToPointNetDevice/TxQueue/Enqueue ns3::PppHeader (Point-to-Point Protocol: IP (0x0021)) ns3::Ipv4Header (tos 0x0 DSCP Default ECN Not-ECT ttl 64 id 2 protocol 17 offset (bytes) 0 flags [none] length: 72 10.1.1.2 > 10.1.1.255) ns3::UdpHeader (length: 52 698 > 698) ns3::olsr::PacketHeader () ns3::olsr::MessageHeader ()
- 4.08789 /NodeList/2/DeviceList/1/$ns3::PointToPointNetDevice/TxQueue/Dequeue ns3::PppHeader (Point-to-Point Protocol: IP (0x0021)) ns3::Ipv4Header (tos 0x0 DSCP Default ECN Not-ECT ttl 64 id 2 protocol 17 offset (bytes) 0 flags [none] length: 72 10.1.1.2 > 10.1.1.255) ns3::UdpHeader (length: 52 698 > 698) ns3::olsr::PacketHeader () ns3::olsr::MessageHeader ()
+ 4.08789 /NodeList/2/DeviceList/2/$ns3::PointToPointNetDevice/TxQueue/Enqueue ns3::PppHeader (Point-to-Point Protocol: IP (0x0021)) ns3::Ipv4Header (tos 0x0 DSCP Default ECN Not-ECT ttl 64 id 2 protocol 17 offset (bytes) 0 flags [none] length: 72 10.1.2.2 > 10.1.2.255) ns3::UdpHeader (length: 52 698 > 698) ns3::olsr::PacketHeader () ns3::olsr::MessageHeader ()
- 4.08789 /NodeList/2/DeviceList/2/$ns3::PointToPointNetDevice/TxQueue/Dequeue ns3::PppHeader (Point-to-Point Protocol: IP (0x0021)) ns3::Ipv4Header (tos 0x0 DSCP Default ECN Not-ECT ttl 64 id 2 protocol 17 offset (bytes) 0 flags [none] length: 72 10.1.2.2 > 10.1.2.255) ns3::UdpHeader (length: 52 698 > 698) ns3::olsr::PacketHeader () ns3::olsr::MessageHeader ()
+ 4.08789 /NodeList/2/DeviceList/3/$ns3::PointToPointNetDevice/TxQueue/Enqueue ns3::PppHeader (Point-to-Point Protocol: IP (0x0021)) ns3::Ipv4Header (tos 0x0 DSCP Default ECN Not-ECT ttl 64 id 2 protocol 17 offset (bytes) 0 flags [none] length: 72 10.1.3.2 > 10.1.3.255) ns3::UdpHeader (length: 52 698 > 698) ns3::olsr::PacketHeader () ns3::olsr::MessageHeader ()
- 4.08789 /NodeList/2/DeviceList/3/$ns3::PointToPointNetDevice/TxQueue/Dequeue ns3::PppHeader (Point-to-Point Protocol: IP (0x0021)) ns3::Ipv4Header (tos 0x0 DSCP Default ECN Not-ECT ttl 64 id 2 protocol 17 offset (bytes) 0 flags [none] length: 72 10.1.3.2 > 10.1.3.255) ns3::UdpHeader (length: 52 698 > 698) ns3::olsr::PacketHeader () ns3::olsr::MessageHeader ()
r 4.09 /NodeList/0/DeviceList/1/$ns3::PointToPointNetDevice/MacRx ns3::PppHeader (Point-to-Point Protocol: IP (0x0021)) ns3::Ipv4Header (tos 0x0 DSCP Default ECN Not-ECT ttl 64 id 2 protocol 17 offset (bytes) 0 flags [none] length: 72 10.1.1.2 > 10.1.1.255) ns3::UdpHeader (length: 52 698 > 698) ns3::olsr::PacketHeader () ns3::olsr::MessageHeader ()
r 4.09 /NodeList/1/DeviceList/1/$ns3::PointToPointNetDevice/MacRx ns3::PppHeader (Point-to-Point Protocol: IP (0x0021)) ns3::Ipv4Header (tos 0x0 DSCP Default ECN Not-ECT ttl 64 id 2 protocol 17 offset (bytes) 0 flags [none] length: 72 10.1.2.2 > 10.1.2.255) ns3::UdpHeader (length: 52 698 > 698) ns3::olsr::PacketHeader () ns3::olsr::MessageHeader ()
r 4.09828 /NodeList/3/DeviceList/1/$ns3::PointToPointNetDevice/MacRx ns3::PppHeader (Point-to-Point Protocol: IP (0x0021)) ns3::Ipv4Header (tos 0x0 DSCP Default ECN Not-ECT ttl 64 id 2 protocol 17 offset (bytes) 0 flags [none] length: 72 10.1.3.2 > 10.1.3.255) ns3::UdpHeader (length: 52 698 > 698) ns3::olsr::PacketHeader () ns3::olsr::MessageHeader ()
+ 4.1055 /NodeList/1/DeviceList/1/$ns3::PointToPointNetDevice/TxQueue/Enqueue ns3::PppHeader (Point-to-Point Protocol: IP (0x0021)) ns3::Ipv4Header (tos 0x0 DSCP Default ECN Not-ECT ttl 64 id 2 protocol 17 offset (bytes) 0 flags [none] length: 56 10.1.2.1 > 10.1.2.255) ns3::UdpHeader (length: 36 698 > 698) ns3::olsr::PacketHeader () ns3::olsr::MessageHeader ()
- 4.1055 /NodeList/1/DeviceList/1/$ns3::PointToPointNetDevice/TxQueue/Dequeue ns3::PppHeader (Point-to-Point Protocol: IP (0x0021)) ns3::Ipv4Header (tos 0x0 DSCP Default ECN Not-ECT ttl 64 id 2 protocol 17 offset (bytes) 0 flags [none] length: 56 10.1.2.1 > 10.1.2.255) ns3::UdpHeader (length: 36 698 > 698) ns3::olsr::PacketHeader () ns3::olsr::MessageHeader ()
r 4.1076 /NodeList/2/DeviceList/2/$ns3::PointToPointNetDevice/MacRx ns3::PppHeader (Point-to-Point Protocol: IP (0x0021)) ns3::Ipv4Header (tos 0x0 DSCP Default ECN Not-ECT ttl 64 id 2 protocol 17 offset (bytes) 0 flags [none] length: 56 10.1.2.1 > 10.1.2.255) ns3::UdpHeader (length: 36 698 > 698) ns3::olsr::PacketHeader () ns3::olsr::MessageHeader ()
+ 4.2056 /NodeList/0/DeviceList/1/$ns3::PointToPointNetDevice/TxQueue/Enqueue ns3::PppHeader (Point-to-Point Protocol: IP (0x0021)) ns3::Ipv4Header (tos 0x0 DSCP Default ECN Not-ECT ttl 64 id 2 protocol 17 offset (bytes) 0 flags [none] length: 56 10.1.1.1 > 10.1.1.255) ns3::UdpHeader (length: 36 698 > 698) ns3::olsr::PacketHeader () ns3::olsr::MessageHeader ()
- 4.2056 /NodeList/0/DeviceList/1/$ns3::PointToPointNetDevice/TxQueue/Dequeue ns3::PppHeader (Point-to-Point Protocol: IP (0x0021)) ns3::Ipv4Header (tos 0x0 DSCP Default ECN Not-ECT ttl 64 id 2 protocol 17 offset (bytes) 0 flags [none] length: 56 10.1.1.1 > 10.1.1.255) ns3::UdpHeader (length: 36 698 > 698) ns3::olsr::PacketHeader () ns3::olsr::MessageHeader ()